Siesta Version  : 4.1.5
Architecture    : unknown
Compiler version: GNU Fortran (crosstool-NG 1.24.0.133_b0863d8_dirty) 9.3.0
Compiler flags  : x86_64-conda-linux-gnu-gfortran -fopenmp -march=nocona -mtune=haswell -ftree--vectorize -fPIC -fstack-protector-strong -fno-plt -O2 -ffunction-sections -pipe
PP flags        : -DFC_HAVE_ABORT -DCDF -DNCDF -DNCDF_4
Libraries       : libncdf.a libfdict.a -llapack -lblas -lnetcdff -lnetcdf -lhdf5_hl -lhdf5 -lz  -fopenmp
SERIAL version
NetCDF support
NetCDF-4 support

* Running in serial mode
* Running 32 OpenMP threads.
* Running 32 processes.
* OpenMP version 201511
* OpenMP NOT bound (please bind threads!)
* OpenMP runtime schedule DYNAMIC, chunks 1
** OpenMP runtime schedule DYNAMIC, chunks 32
>> Start of run:  27-MAR-2023  22:42:28

                           ***********************       
                           *  WELCOME TO SIESTA  *       
                           ***********************       

reinit: Reading from RUN_ELEC.fdf

reinit: -----------------------------------------------------------------------
reinit: System Name: 
reinit: -----------------------------------------------------------------------
reinit: System Label: ELEC
reinit: -----------------------------------------------------------------------

initatom: Reading input for the pseudopotentials and atomic orbitals ----------
Species number:   1 Atomic number:    6 Label: C

Ground state valence configuration:   2s02  2p02
Reading pseudopotential information in formatted form from C.psf

Valence configuration for pseudopotential generation:
2s( 2.00) rc: 1.20
2p( 2.00) rc: 1.19
3d( 0.00) rc: 1.43
4f( 0.00) rc: 1.43
For C, standard SIESTA heuristics set lmxkb to 3
 (one more than the basis l, including polarization orbitals).
Use PS.lmax or PS.KBprojectors blocks to override.

<basis_specs>
===============================================================================
C                    Z=   6    Mass=  12.010        Charge= 0.17977+309
Lmxo=1 Lmxkb= 3    BasisType=split      Semic=F
L=0  Nsemic=0  Cnfigmx=2
          i=1  nzeta=1  polorb=0  (2s)
            splnorm:   0.15000    
               vcte:    0.0000    
               rinn:    0.0000    
               qcoe:    0.0000    
               qyuk:    0.0000    
               qwid:   0.10000E-01
                rcs:    0.0000    
            lambdas:    1.0000    
L=1  Nsemic=0  Cnfigmx=2
          i=1  nzeta=1  polorb=1  (2p)
            splnorm:   0.15000    
               vcte:    0.0000    
               rinn:    0.0000    
               qcoe:    0.0000    
               qyuk:    0.0000    
               qwid:   0.10000E-01
                rcs:    0.0000    
            lambdas:    1.0000    
-------------------------------------------------------------------------------
L=0  Nkbl=1  erefs: 0.17977+309
L=1  Nkbl=1  erefs: 0.17977+309
L=2  Nkbl=1  erefs: 0.17977+309
L=3  Nkbl=1  erefs: 0.17977+309
===============================================================================
</basis_specs>

Filter: Requested cutoff:  150.000000 Ry
atom: Called for C                     (Z =   6)

read_vps: Pseudopotential generation method:
read_vps: ATM3      Troullier-Martins                       
Valence charge for ps generation:    4.00000

read_vps: Pseudopotential includes a core correction:
read_vps: Pseudo-core for xc-correction

xc_check: Exchange-correlation functional:
xc_check: GGA Perdew, Burke & Ernzerhof 1996
V l=0 = -2*Zval/r beyond r=  1.2007
V l=1 = -2*Zval/r beyond r=  1.1710
V l=2 = -2*Zval/r beyond r=  1.4126
V l=3 = -2*Zval/r beyond r=  1.3951
All V_l potentials equal beyond r=  1.3951
This should be close to max(r_c) in ps generation
All pots = -2*Zval/r beyond r=  1.4126

VLOCAL1: 99.0% of the norm of Vloc inside     22.304 Ry
VLOCAL1: 99.9% of the norm of Vloc inside     50.830 Ry
atom: Maximum radius for 4*pi*r*r*local-pseudopot. charge    1.68286
atom: Maximum radius for r*vlocal+2*Zval:    1.44839
GHOST: No ghost state for L =  0
GHOST: No ghost state for L =  1
GHOST: No ghost state for L =  2
GHOST: No ghost state for L =  3

KBgen: Kleinman-Bylander projectors: 
   l= 0   rc=  1.561233   el= -1.009801   Ekb=  7.994661   kbcos=  0.259238
   l= 1   rc=  1.561233   el= -0.388707   Ekb= -5.421033   kbcos= -0.292933
   l= 2   rc=  1.682861   el=  0.001971   Ekb= -0.997067   kbcos= -0.007447
   l= 3   rc=  1.791422   el=  0.003065   Ekb= -0.398816   kbcos= -0.000907

KBgen: Total number of Kleinman-Bylander projectors:   16
atom: -------------------------------------------------------------------------

atom: SANKEY-TYPE ORBITALS:

SPLIT: Orbitals with angular momentum L= 0

SPLIT: Basis orbitals for state 2s

SPLIT: PAO cut-off radius determined from an
SPLIT: energy shift=  0.010000 Ry

   izeta = 1
                 lambda =    1.000000
                     rc =    4.518360
                 energy =   -1.000486
                kinetic =    0.907786
    potential(screened) =   -1.908272
       potential(ionic) =   -5.470848
PAO Filter: Cutoff used:   73.50 Ry
PAO Filter: diagnostic kin energy tol:    0.003000 Ry
PAO Filter: Nominal cutoff (before filtering):   38.95 Ry
Filter:    Number of eigenfunctions  of the
           filtering kernel (total, used)= 35 11

SPLIT: Orbitals with angular momentum L= 1

SPLIT: Basis orbitals for state 2p

SPLIT: PAO cut-off radius determined from an
SPLIT: energy shift=  0.010000 Ry

   izeta = 1
                 lambda =    1.000000
                     rc =    5.518829
                 energy =   -0.379731
                kinetic =    2.495535
    potential(screened) =   -2.875266
       potential(ionic) =   -6.307879
PAO Filter: Cutoff used:   73.50 Ry
PAO Filter: diagnostic kin energy tol:    0.003000 Ry
PAO Filter: Nominal cutoff (before filtering):   60.94 Ry
Filter:    Number of eigenfunctions  of the
           filtering kernel (total, used)= 41 13

POLgen: Perturbative polarization orbital with L=  2

POLgen: Polarization orbital for state 2p

   izeta = 1
                     rc =    5.518829
                 energy =    1.133605
                kinetic =    2.327985
    potential(screened) =   -1.194380
       potential(ionic) =   -4.027121
PAO Filter: diagnostic kin energy tol:    0.003000 Ry
PAO Filter: Nominal cutoff (before filtering):   84.54 Ry
Filter:    Number of eigenfunctions  of the
           filtering kernel (total, used)= 41 12
atom: Total number of Sankey-type orbitals:  9

atm_pop: Valence configuration (for local Pseudopot. screening):
 2s( 2.00)                                                            
 2p( 2.00)                                                            
Vna: chval, zval:    4.00000   4.00000

Vna:  Cut-off radius for the neutral-atom potential:   5.518829
VNA Filter: diagnostic kinetic energy tol:    0.003000 Ry
VNA Filter: Nominal cutoff (before filtering):   26.93 Ry
VNA Filter: Cutoff used:   150.00 Ry
Filter:    Number of eigenfunctions  of the
           filtering kernel (total, used)= 54 20
comcore: Pseudo-core radius Rcore=  1.791422
PCC Filter: diagnostic kin energy tol:    0.003000 Ry
PCC Filter: Nominal cutoff (before filtering):  211.64 Ry
PCC Filter: Cutoff used:   150.00 Ry
Filter:    Number of eigenfunctions  of the
           filtering kernel (total, used)= 24  5

atom: _________________________________________________________________________

prinput: Basis input ----------------------------------------------------------

PAO.BasisType split     

%block ChemicalSpeciesLabel
    1    6 C                       # Species index, atomic number, species label
%endblock ChemicalSpeciesLabel

%block PAO.Basis                 # Define Basis set
C                     2                    # Species label, number of l-shells
 n=2   0   1                         # n, l, Nzeta 
   4.518   
   1.000   
 n=2   1   1 P   1                   # n, l, Nzeta, Polarization, NzetaPol
   5.519   
   1.000   
%endblock PAO.Basis

prinput: ----------------------------------------------------------------------

Dumping basis to NetCDF file C.ion.nc
coor:   Atomic-coordinates input format  =     Cartesian coordinates
coor:                                          (in Angstroms)

siesta: Atomic coordinates (Bohr) and species
siesta:      0.00000   0.00000   0.00000  1        1
siesta:      1.36060   2.35663   0.00000  1        2
siesta:      4.08181   2.35663   0.00000  1        3
siesta:      5.44241   0.00000   0.00000  1        4

siesta: System type = slab      

initatomlists: Number of atoms, orbitals, and projectors:      4    36    64

siesta: ******************** Simulation parameters ****************************
siesta:
siesta: The following are some of the parameters of the simulation.
siesta: A complete list of the parameters used, including default values,
siesta: can be found in file out.fdf
siesta:
redata: Spin configuration                          = none
redata: Number of spin components                   = 1
redata: Time-Reversal Symmetry                      = T
redata: Spin spiral                                 = F
redata: Long output                                 =   F
redata: Number of Atomic Species                    =        1
redata: Charge density info will appear in .RHO file
redata: Write Mulliken Pop.                         = NO
redata: Matel table size (NRTAB)                    =     1024
redata: Mesh Cutoff                                 =   250.0000 Ry
redata: Net charge of the system                    =     0.0000 |e|
redata: Min. number of SCF Iter                     =        3
redata: Max. number of SCF Iter                     =      200
redata: SCF convergence failure will abort job
redata: SCF mix quantity                            = Hamiltonian
redata: Mix DM or H after convergence               =   F
redata: Recompute H after scf cycle                 =   F
redata: Mix DM in first SCF step                    =   T
redata: Write Pulay info on disk                    =   F
redata: New DM Occupancy tolerance                  = 0.000000000001
redata: No kicks to SCF
redata: DM Mixing Weight for Kicks                  =     0.5000
redata: Require Harris convergence for SCF          =   F
redata: Harris energy tolerance for SCF             =     0.000100 eV
redata: Require DM convergence for SCF              =   T
redata: DM tolerance for SCF                        =     0.000100
redata: Require EDM convergence for SCF             =   F
redata: EDM tolerance for SCF                       =     0.001000 eV
redata: Require H convergence for SCF               =   T
redata: Hamiltonian tolerance for SCF               =     0.001000 eV
redata: Require (free) Energy convergence for SCF   =   F
redata: (free) Energy tolerance for SCF             =     0.000100 eV
redata: Using Saved Data (generic)                  =   F
redata: Use continuation files for DM               =   T
redata: Neglect nonoverlap interactions             =   F
redata: Method of Calculation                       = Diagonalization
redata: Electronic Temperature                      =   299.9978 K
redata: Fix the spin of the system                  =   F
redata: Dynamics option                             = Single-point calculation
mix.SCF: Pulay mixing                            = Pulay
mix.SCF:    Variant                              = stable
mix.SCF:    History steps                        = 12
mix.SCF:    Linear mixing weight                 =     0.100000
mix.SCF:    Mixing weight                        =     0.100000
mix.SCF:    SVD condition                        = 0.1000E-07
redata: Save all siesta data in one NC              =   F
redata: ***********************************************************************

%block SCF.Mixers
  Pulay
%endblock SCF.Mixers

%block SCF.Mixer.Pulay
  # Mixing method
  method pulay
  variant stable

  # Mixing options
  weight 0.1000
  weight.linear 0.1000
  history 12
%endblock SCF.Mixer.Pulay

DM_history_depth set to one: no extrapolation allowed by default for geometry relaxation
Size of DM history Fstack: 1
Total number of electrons:    16.000000
Total ionic charge:    16.000000
k-point displ. along   1 input, could be:     0.00    0.50
k-point displ. along   2 input, could be:     0.00    0.50
 Kpoints in:          510 . Kpoints trimmed:          506

siesta: k-grid: Number of k-points =   506
siesta: k-grid: Cutoff (effective) =     7.200 Ang
siesta: k-grid: Supercell and displacements
siesta: k-grid:  100   0   0      0.000
siesta: k-grid:    0  10   0      0.000
siesta: k-grid:    0   0   1      0.000

diag: Algorithm                                     = D&C
diag: Used triangular part                          = Lower
diag: Absolute tolerance                            =  0.100E-15
diag: Orthogonalization factor                      =  0.100E-05
diag: Memory factor                                 =  1.0000

superc: Internal auxiliary supercell:     5 x     7 x     1  =      35
superc: Number of atoms, orbitals, and projectors:    140   1260   2240


ts: **************************************************************
ts: Save H and S matrices                           =    T
ts: Save DM and EDM matrices                        =    T
ts: Only save the overlap matrix S                  =    F
ts: **************************************************************

************************ Begin: TS CHECKS AND WARNINGS ************************
************************ End: TS CHECKS AND WARNINGS **************************


                     ====================================
                        Single-point calculation
                     ====================================

superc: Internal auxiliary supercell:     5 x     7 x     1  =      35
superc: Number of atoms, orbitals, and projectors:    140   1260   2240

outcell: Unit cell vectors (Ang):
        4.320000    0.000000    0.000000
        0.000000    2.494153    0.000000
        0.000000    0.000000   14.400000

outcell: Cell vector modules (Ang)   :    4.320000    2.494153   14.400000
outcell: Cell angles (23,13,12) (deg):     90.0000     90.0000     90.0000
outcell: Cell volume (Ang**3)        :    155.1563
<dSpData1D:S at geom step 0
  <sparsity:sparsity for geom step 0
    nrows_g=36 nrows=36 sparsity=15.3241 nnzs=19860, refcount: 7>
  <dData1D:(new from dSpData1D) n=19860, refcount: 1>
refcount: 1>
new_DM -- step:     1
Initializing Density Matrix...

Attempting to read DM from file... Failed...
DM filled with atomic data:
<dSpData2D:DM initialized from atoms
  <sparsity:sparsity for geom step 0
    nrows_g=36 nrows=36 sparsity=15.3241 nnzs=19860, refcount: 8>
  <dData2D:DM n=19860 m=1, refcount: 1>
refcount: 1>
No. of atoms with KB's overlaping orbs in proc 0. Max # of overlaps:      32     165
New grid distribution:   1
           1       1:   24    1:   12    1:   72

InitMesh: MESH =    48 x    24 x   144 =      165888
InitMesh: (bp) =    24 x    12 x    72 =       20736
InitMesh: Mesh cutoff (required, used) =   250.000   255.904 Ry
ExtMesh (bp) on 0 =    92 x    72 x   132 =      874368
PhiOnMesh: Number of (b)points on node 0 =                20736
PhiOnMesh: nlist on node 0 =               514068

stepf: Fermi-Dirac step function

siesta: Program's energy decomposition (eV):
siesta: Ebs     =      -248.826325
siesta: Eions   =      1115.906801
siesta: Ena     =       293.273514
siesta: Ekin    =       416.772880
siesta: Enl     =       -24.754830
siesta: Eso     =         0.000000
siesta: Edftu   =         0.000000
siesta: DEna    =         2.867922
siesta: DUscf   =         0.592846
siesta: DUext   =         0.000000
siesta: Exc     =      -221.908058
siesta: eta*DQ  =         0.000000
siesta: Emadel  =         0.000000
siesta: Emeta   =         0.000000
siesta: Emolmec =         0.000000
siesta: Ekinion =         0.000000
siesta: Eharris =      -643.352978
siesta: Etot    =      -649.062526
siesta: FreeEng =      -649.062526

        iscf     Eharris(eV)        E_KS(eV)     FreeEng(eV)     dDmax    Ef(eV) dHmax(eV)
   scf:    1     -643.352978     -649.062526     -649.062526  1.377096 -5.821086  0.505856
timer: Routine,Calls,Time,% = IterSCF        1      41.899  98.34
   scf:    2     -649.062849     -649.062688     -649.062688  0.000230 -5.869724  0.456619
   scf:    3     -649.063823     -649.063292     -649.063292  0.002152 -6.331816  0.006270
   scf:    4     -649.063322     -649.063308     -649.063308  0.000268 -6.326977  0.000135
   scf:    5     -649.063308     -649.063308     -649.063308  0.000003 -6.327884  0.000166

SCF Convergence by DM+H criterion
max |DM_out - DM_in|         :     0.0000028713
max |H_out - H_in|      (eV) :     0.0001657536
SCF cycle converged after 5 iterations

Using DM_out to compute the final energy and forces
No. of atoms with KB's overlaping orbs in proc 0. Max # of overlaps:      32     165

siesta: E_KS(eV) =             -649.0633

siesta: E_KS - E_eggbox =      -649.0633

siesta: Atomic forces (eV/Ang):
----------------------------------------
   Tot   -0.000000    0.000000   -0.000000
----------------------------------------
   Max    0.036436
   Res    0.021037    sqrt( Sum f_i^2 / 3N )
----------------------------------------
   Max    0.036436    constrained

Stress tensor Voigt[x,y,z,yz,xz,xy] (kbar):      -29.05      -26.45        0.91       -0.00       -0.00        0.00
(Free)E + p*V (eV/cell)     -647.3011
Target enthalpy (eV/cell)     -649.0633

siesta: Program's energy decomposition (eV):
siesta: Ebs     =      -249.144031
siesta: Eions   =      1115.906801
siesta: Ena     =       293.273514
siesta: Ekin    =       416.527391
siesta: Enl     =       -24.776942
siesta: Eso     =         0.000000
siesta: Edftu   =         0.000000
siesta: DEna    =         3.083605
siesta: DUscf   =         0.584484
siesta: DUext   =         0.000000
siesta: Exc     =      -221.848559
siesta: eta*DQ  =         0.000000
siesta: Emadel  =         0.000000
siesta: Emeta   =         0.000000
siesta: Emolmec =         0.000000
siesta: Ekinion =         0.000000
siesta: Eharris =      -649.063308
siesta: Etot    =      -649.063308
siesta: FreeEng =      -649.063308

siesta: Final energy (eV):
siesta:  Band Struct. =    -249.144031
siesta:       Kinetic =     416.527391
siesta:       Hartree =    1982.672936
siesta:       Edftu   =       0.000000
siesta:       Eso     =       0.000000
siesta:    Ext. field =       0.000000
siesta:   Exch.-corr. =    -221.848559
siesta:  Ion-electron =   -4386.891433
siesta:       Ion-ion =    1560.476356
siesta:       Ekinion =       0.000000
siesta:         Total =    -649.063308
siesta:         Fermi =      -6.327884

siesta: Stress tensor (static) (eV/Ang**3):
siesta:    -0.018131   -0.000000   -0.000000
siesta:     0.000000   -0.016509   -0.000000
siesta:    -0.000000   -0.000000    0.000567

siesta: Cell volume =        155.156280 Ang**3

siesta: Pressure (static):
siesta:                Solid            Molecule  Units
siesta:           0.00012370          0.00012493  Ry/Bohr**3
siesta:           0.01135757          0.01147030  eV/Ang**3
siesta:          18.19703775         18.37763998  kBar
(Free)E+ p_basis*V_orbitals  =        -647.735485
(Free)Eharris+ p_basis*V_orbitals  =        -647.735485

siesta: Electric dipole (a.u.)  =   -0.000000   -0.000000   -0.000000
siesta: Electric dipole (Debye) =   -0.000000   -0.000000   -0.000000

cite: Please see "ELEC.bib" for an exhaustive BiBTeX file.
cite: Please clearly indicate Siesta version in published work: 4.1.5
cite: This calculation has made use of the following articles
cite: which are encouraged to be cited in a published work.
        Primary SIESTA paper
          DOI: www.doi.org/10.1088/0953-8984/14/11/302


timer: Elapsed wall time (sec) =     209.499
timer: CPU execution times (sec):

Routine            Calls   Time/call    Tot.time        %
siesta                 1     209.499     209.499   100.00
Setup                  1       0.105       0.105     0.05
bands                  1       0.000       0.000     0.00
KSV_init               1       0.000       0.000     0.00
IterGeom               1     209.384     209.384    99.94
state_init             1       0.042       0.042     0.02
hsparse                1       0.001       0.001     0.00
overlap                1       0.033       0.033     0.02
Setup_H0               1       0.561       0.561     0.27
naefs                  2       0.000       0.000     0.00
MolMec                 2       0.000       0.000     0.00
kinefsm                2       0.018       0.036     0.02
nlefsm                 2       0.104       0.208     0.10
DHSCF_Init             1       0.372       0.372     0.18
DHSCF1                 1       0.011       0.011     0.01
INITMESH               1       0.000       0.000     0.00
DHSCF2                 1       0.361       0.361     0.17
REMESH                 1       0.052       0.052     0.02
REORD                 29       0.000       0.004     0.00
PHION                  1       0.272       0.272     0.13
COMM_BSC              31       0.000       0.003     0.00
POISON                 8       0.012       0.094     0.05
fft                   16       0.004       0.056     0.03
IterSCF                5      41.645     208.226    99.39
setup_H                6       0.117       0.705     0.34
DHSCF                  7       0.169       1.181     0.56
DHSCF3                 7       0.113       0.789     0.38
rhoofd                 7       0.027       0.188     0.09
XC                     7       0.043       0.298     0.14
GXC-CellXC             7       0.042       0.296     0.14
cellXC                 7       0.042       0.296     0.14
vmat                   7       0.026       0.182     0.09
writeHSX               7       0.003       0.018     0.01
compute_dm             5      41.487     207.435    99.01
diagon                 5      41.487     207.434    99.01
c-eigval            2530       0.009      22.395    10.69
c-buildHS           2530       0.008      21.230    10.13
cdiag               5060       0.002      10.282     4.91
cdiag1              5060       0.000       0.063     0.03
cdiag2              5060       0.002       9.375     4.47
cdiag3              5060       0.000       0.810     0.39
c-eigvec            2530       0.006      14.507     6.92
cdiag4              2530       0.000       0.011     0.01
c-buildD            2530       0.067     170.518    81.39
MIXER                  4       0.015       0.059     0.03
PostSCF                1       0.554       0.554     0.26
DHSCF4                 1       0.392       0.392     0.19
dfscf                  1       0.356       0.356     0.17
overfsm                1       0.004       0.004     0.00
state_analysis         1       0.000       0.000     0.00
siesta_move            1       0.000       0.000     0.00
Analysis               1       0.009       0.009     0.00
siesta_analysis        1       0.009       0.009     0.00
optical                1       0.000       0.000     0.00
  
>> End of run:  27-MAR-2023  22:45:57
Job completed
