Siesta Version  : 4.1.5
Architecture    : unknown
Compiler version: GNU Fortran (crosstool-NG 1.24.0.133_b0863d8_dirty) 9.3.0
Compiler flags  : x86_64-conda-linux-gnu-gfortran -fopenmp -march=nocona -mtune=haswell -ftree--vectorize -fPIC -fstack-protector-strong -fno-plt -O2 -ffunction-sections -pipe
PP flags        : -DFC_HAVE_ABORT -DCDF -DNCDF -DNCDF_4
Libraries       : libncdf.a libfdict.a -llapack -lblas -lnetcdff -lnetcdf -lhdf5_hl -lhdf5 -lz  -fopenmp
SERIAL version
NetCDF support
NetCDF-4 support

* Running in serial mode
* Running 24 OpenMP threads.
* Running 24 processes.
* OpenMP version 201511
* OpenMP NOT bound (please bind threads!)
* OpenMP runtime schedule DYNAMIC, chunks 1
** OpenMP runtime schedule DYNAMIC, chunks 32
>> Start of run:  27-MAR-2023  18:47:11

                           ***********************       
                           *  WELCOME TO SIESTA  *       
                           ***********************       

reinit: Reading from ../RUN.fdf

reinit: -----------------------------------------------------------------------
reinit: System Name: 
reinit: -----------------------------------------------------------------------
reinit: System Label: siesta
reinit: -----------------------------------------------------------------------

initatom: Reading input for the pseudopotentials and atomic orbitals ----------
Species number:   1 Atomic number:    6 Label: C

Ground state valence configuration:   2s02  2p02
Reading pseudopotential information in formatted form from C.psf

Valence configuration for pseudopotential generation:
2s( 2.00) rc: 1.20
2p( 2.00) rc: 1.19
3d( 0.00) rc: 1.43
4f( 0.00) rc: 1.43
For C, standard SIESTA heuristics set lmxkb to 3
 (one more than the basis l, including polarization orbitals).
Use PS.lmax or PS.KBprojectors blocks to override.

<basis_specs>
===============================================================================
C                    Z=   6    Mass=  12.010        Charge= 0.17977+309
Lmxo=1 Lmxkb= 3    BasisType=split      Semic=F
L=0  Nsemic=0  Cnfigmx=2
          i=1  nzeta=1  polorb=0  (2s)
            splnorm:   0.15000    
               vcte:    0.0000    
               rinn:    0.0000    
               qcoe:    0.0000    
               qyuk:    0.0000    
               qwid:   0.10000E-01
                rcs:    0.0000    
            lambdas:    1.0000    
L=1  Nsemic=0  Cnfigmx=2
          i=1  nzeta=1  polorb=1  (2p)
            splnorm:   0.15000    
               vcte:    0.0000    
               rinn:    0.0000    
               qcoe:    0.0000    
               qyuk:    0.0000    
               qwid:   0.10000E-01
                rcs:    0.0000    
            lambdas:    1.0000    
-------------------------------------------------------------------------------
L=0  Nkbl=1  erefs: 0.17977+309
L=1  Nkbl=1  erefs: 0.17977+309
L=2  Nkbl=1  erefs: 0.17977+309
L=3  Nkbl=1  erefs: 0.17977+309
===============================================================================
</basis_specs>

Filter: Requested cutoff:  150.000000 Ry
atom: Called for C                     (Z =   6)

read_vps: Pseudopotential generation method:
read_vps: ATM3      Troullier-Martins                       
Valence charge for ps generation:    4.00000

read_vps: Pseudopotential includes a core correction:
read_vps: Pseudo-core for xc-correction

xc_check: Exchange-correlation functional:
xc_check: GGA Perdew, Burke & Ernzerhof 1996
V l=0 = -2*Zval/r beyond r=  1.2007
V l=1 = -2*Zval/r beyond r=  1.1710
V l=2 = -2*Zval/r beyond r=  1.4126
V l=3 = -2*Zval/r beyond r=  1.3951
All V_l potentials equal beyond r=  1.3951
This should be close to max(r_c) in ps generation
All pots = -2*Zval/r beyond r=  1.4126

VLOCAL1: 99.0% of the norm of Vloc inside     22.304 Ry
VLOCAL1: 99.9% of the norm of Vloc inside     50.830 Ry
atom: Maximum radius for 4*pi*r*r*local-pseudopot. charge    1.68286
atom: Maximum radius for r*vlocal+2*Zval:    1.44839
GHOST: No ghost state for L =  0
GHOST: No ghost state for L =  1
GHOST: No ghost state for L =  2
GHOST: No ghost state for L =  3

KBgen: Kleinman-Bylander projectors: 
   l= 0   rc=  1.561233   el= -1.009801   Ekb=  7.994661   kbcos=  0.259238
   l= 1   rc=  1.561233   el= -0.388707   Ekb= -5.421033   kbcos= -0.292933
   l= 2   rc=  1.682861   el=  0.001971   Ekb= -0.997067   kbcos= -0.007447
   l= 3   rc=  1.791422   el=  0.003065   Ekb= -0.398816   kbcos= -0.000907

KBgen: Total number of Kleinman-Bylander projectors:   16
atom: -------------------------------------------------------------------------

atom: SANKEY-TYPE ORBITALS:

SPLIT: Orbitals with angular momentum L= 0

SPLIT: Basis orbitals for state 2s

SPLIT: PAO cut-off radius determined from an
SPLIT: energy shift=  0.020000 Ry

   izeta = 1
                 lambda =    1.000000
                     rc =    4.088342
                 energy =   -0.989111
                kinetic =    0.950291
    potential(screened) =   -1.939402
       potential(ionic) =   -5.528290
PAO Filter: Cutoff used:   73.50 Ry
PAO Filter: diagnostic kin energy tol:    0.003000 Ry
PAO Filter: Nominal cutoff (before filtering):   62.85 Ry
Filter:    Number of eigenfunctions  of the
           filtering kernel (total, used)= 33 10

SPLIT: Orbitals with angular momentum L= 1

SPLIT: Basis orbitals for state 2p

SPLIT: PAO cut-off radius determined from an
SPLIT: energy shift=  0.020000 Ry

   izeta = 1
                 lambda =    1.000000
                     rc =    4.870301
                 energy =   -0.368903
                kinetic =    2.604231
    potential(screened) =   -2.973133
       potential(ionic) =   -6.453995
PAO Filter: Cutoff used:   73.50 Ry
PAO Filter: diagnostic kin energy tol:    0.003000 Ry
PAO Filter: Nominal cutoff (before filtering):   62.12 Ry
Filter:    Number of eigenfunctions  of the
           filtering kernel (total, used)= 37 11

POLgen: Perturbative polarization orbital with L=  2

POLgen: Polarization orbital for state 2p

   izeta = 1
                     rc =    4.870301
                 energy =    1.294691
                kinetic =    2.618233
    potential(screened) =   -1.323542
       potential(ionic) =   -4.271746
PAO Filter: diagnostic kin energy tol:    0.003000 Ry
PAO Filter: Nominal cutoff (before filtering):  115.21 Ry
Filter:    Number of eigenfunctions  of the
           filtering kernel (total, used)= 37 11
atom: Total number of Sankey-type orbitals:  9

atm_pop: Valence configuration (for local Pseudopot. screening):
 2s( 2.00)                                                            
 2p( 2.00)                                                            
Vna: chval, zval:    4.00000   4.00000

Vna:  Cut-off radius for the neutral-atom potential:   4.870301
VNA Filter: diagnostic kinetic energy tol:    0.003000 Ry
VNA Filter: Nominal cutoff (before filtering):   27.20 Ry
VNA Filter: Cutoff used:   150.00 Ry
Filter:    Number of eigenfunctions  of the
           filtering kernel (total, used)= 49 17
comcore: Pseudo-core radius Rcore=  1.791422
PCC Filter: diagnostic kin energy tol:    0.003000 Ry
PCC Filter: Nominal cutoff (before filtering):  211.64 Ry
PCC Filter: Cutoff used:   150.00 Ry
Filter:    Number of eigenfunctions  of the
           filtering kernel (total, used)= 24  5

atom: _________________________________________________________________________

prinput: Basis input ----------------------------------------------------------

PAO.BasisType split     

%block ChemicalSpeciesLabel
    1    6 C                       # Species index, atomic number, species label
%endblock ChemicalSpeciesLabel

%block PAO.Basis                 # Define Basis set
C                     2                    # Species label, number of l-shells
 n=2   0   1                         # n, l, Nzeta 
   4.088   
   1.000   
 n=2   1   1 P   1                   # n, l, Nzeta, Polarization, NzetaPol
   4.870   
   1.000   
%endblock PAO.Basis

prinput: ----------------------------------------------------------------------

Dumping basis to NetCDF file C.ion.nc
coor:   Atomic-coordinates input format  =     Cartesian coordinates
coor:                                          (in Angstroms)

siesta: Atomic coordinates (Bohr) and species
siesta:      0.00000   0.00000   0.00000  1        1
siesta:      1.36060   2.35663   0.00000  1        2
siesta:      4.08181   2.35663   0.00000  1        3
siesta:      5.44241   0.00000   0.00000  1        4
siesta:      8.16362   0.00000   0.00000  1        5
siesta:      9.52422   2.35663   0.00000  1        6
siesta:     12.24543   2.35663   0.00000  1        7
siesta:     13.60603   0.00000   0.00000  1        8
siesta:     16.32724   0.00000   0.00000  1        9
siesta:     17.68784   2.35663   0.00000  1       10
siesta:     20.40905   2.35663   0.00000  1       11
siesta:     21.76965   0.00000   0.00000  1       12
siesta:     24.49086   0.00000   0.00000  1       13
siesta:     25.85146   2.35663   0.00000  1       14
siesta:     28.57267   2.35663   0.00000  1       15
siesta:     29.93327   0.00000   0.00000  1       16
siesta:     32.65448   0.00000   0.00000  1       17
siesta:     34.01508   2.35663   0.00000  1       18
siesta:     36.73629   2.35663   0.00000  1       19
siesta:     38.09689   0.00000   0.00000  1       20
siesta:     40.81810   0.00000   0.00000  1       21
siesta:     42.17870   2.35663   0.00000  1       22
siesta:     44.89991   2.35663   0.00000  1       23
siesta:     46.26051   0.00000   0.00000  1       24

siesta: System type = slab      

initatomlists: Number of atoms, orbitals, and projectors:     24   216   384

siesta: ******************** Simulation parameters ****************************
siesta:
siesta: The following are some of the parameters of the simulation.
siesta: A complete list of the parameters used, including default values,
siesta: can be found in file out.fdf
siesta:
redata: Spin configuration                          = none
redata: Number of spin components                   = 1
redata: Time-Reversal Symmetry                      = T
redata: Spin spiral                                 = F
redata: Long output                                 =   F
redata: Number of Atomic Species                    =        1
redata: Charge density info will appear in .RHO file
redata: Write Mulliken Pop.                         = NO
redata: Matel table size (NRTAB)                    =     1024
redata: Mesh Cutoff                                 =   250.0000 Ry
redata: Net charge of the system                    =     0.0000 |e|
redata: Min. number of SCF Iter                     =        3
redata: Max. number of SCF Iter                     =     1000
redata: SCF convergence failure will abort job
redata: SCF mix quantity                            = Hamiltonian
redata: Mix DM or H after convergence               =   F
redata: Recompute H after scf cycle                 =   F
redata: Mix DM in first SCF step                    =   T
redata: Write Pulay info on disk                    =   F
redata: New DM Occupancy tolerance                  = 0.000000000001
redata: No kicks to SCF
redata: DM Mixing Weight for Kicks                  =     0.5000
redata: Require Harris convergence for SCF          =   F
redata: Harris energy tolerance for SCF             =     0.000100 eV
redata: Require DM convergence for SCF              =   T
redata: DM tolerance for SCF                        =     0.000100
redata: Require EDM convergence for SCF             =   F
redata: EDM tolerance for SCF                       =     0.001000 eV
redata: Require H convergence for SCF               =   T
redata: Hamiltonian tolerance for SCF               =     0.001000 eV
redata: Require (free) Energy convergence for SCF   =   F
redata: (free) Energy tolerance for SCF             =     0.000100 eV
redata: Using Saved Data (generic)                  =   F
redata: Use continuation files for DM               =   T
redata: Neglect nonoverlap interactions             =   F
redata: Method of Calculation                       = Transiesta
redata: Fix the spin of the system                  =   F
redata: Dynamics option                             = Single-point calculation
mix.SCF: Pulay mixing                            = Pulay
mix.SCF:    Variant                              = stable
mix.SCF:    History steps                        = 12
mix.SCF:    Linear mixing weight                 =     0.100000
mix.SCF:    Mixing weight                        =     0.100000
mix.SCF:    SVD condition                        = 0.1000E-07
redata: Save all siesta data in one NC              =   F
redata: ***********************************************************************

%block SCF.Mixers
  Pulay
%endblock SCF.Mixers

%block SCF.Mixer.Pulay
  # Mixing method
  method pulay
  variant stable

  # Mixing options
  weight 0.1000
  weight.linear 0.1000
  history 12
%endblock SCF.Mixer.Pulay

DM_history_depth set to one: no extrapolation allowed by default for geometry relaxation
Size of DM history Fstack: 1
Total number of electrons:    96.000000
Total ionic charge:    96.000000
k-point displ. along   2 input, could be:     0.00    0.50
 Kpoints in:           18 . Kpoints trimmed:           17

siesta: k-grid: Number of k-points =    17
siesta: k-grid: Cutoff (effective) =     7.200 Ang
siesta: k-grid: Supercell and displacements
siesta: k-grid:    3   0   0      0.000
siesta: k-grid:    0  10   0      0.000
siesta: k-grid:    0   0   1      0.000

diag: Algorithm                                     = D&C
diag: Used triangular part                          = Lower
diag: Absolute tolerance                            =  0.100E-15
diag: Orthogonalization factor                      =  0.100E-05
diag: Memory factor                                 =  1.0000

superc: Internal auxiliary supercell:     3 x     5 x     1  =      15
superc: Number of atoms, orbitals, and projectors:    360   3240   5760

k-point displ. along   2 input, could be:     0.00    0.50
 Kpoints in:            6 . Kpoints trimmed:            6

transiesta: k-grid: Number of Green function k-points =     6
transiesta: k-grid: Supercell and displacements
transiesta: k-grid:    1   0   0      0.000
transiesta: k-grid:    0  10   0      0.000
transiesta: k-grid:    0   0   1      0.000

ts: **************************************************************
ts: Voltage                                         =    1.0000 Volts
ts: Save H and S matrices                           =    T
ts: Electronic temperature                          =  299.997806 K
ts: Transport along unit-cell vector                =    A1
ts: Transport along Cartesian vector                =    X
ts: Fixing Hartree potential at cell boundary       =    -A
ts: Fix Hartree potential fraction                  =    1.0000
ts: Hartree potential offset                        =    0.000000 eV
ts: Solution method                                 =    BTD
ts: BTD pivoting method                             =    atom+Left
ts: BTD creation algorithm                          =    speed
ts: BTD spectral function algorithm                 =    propagation
ts: SCF DM tolerance                                = 0.100E-03
ts: SCF Hamiltonian tolerance                       =    0.001000 eV
ts: SCF converge charge                             =    T
ts: SCF charge tolerance                            = 0.960E-01
ts: Initialize DM by                                =    diagon
ts: Hartree potential ramp across entire cell
ts: Non-equilibrium contour weight method           =    orb-orb
ts: Non-equilibrium contour weight k-method         =    Correlated k-points
ts: Will not correct charge fluctuations
ts: TS.SCF mixing options same as SCF
ts:           >> Electrodes << 
ts: >> Left
ts:   Electrode cell pivoting: E1, E2, E3           = A1, A2, A3
ts:   GF file                                       = siesta.TSGFLeft
ts:   Reuse existing GF-file                        =    T
ts:   Electrode TSHS file                           = ../ELEC.TSHS
ts:   # atoms used in electrode                     =    8
ts:   Electrode Bloch unity [E1 x E2 x E3]          = 1 x 1 x 1
ts:   Position in geometry                          = 1 -- 8
ts:   Semi-infinite direction for electrode         = negative wrt. E1
ts:   Chemical shift                                =    0.499999 eV
ts:   Electronic temperature                        =  299.997806 K
ts:   Gamma-only electrode                          =    F
ts:   Bulk H, S in electrode region                 =    T
ts:   Initial DM for electrodes                     = diagon
ts:   Cross-terms are updated
ts:   Manual delta-Ef shift                         =    0.000000 eV
ts:   Hamiltonian E-C bias fractional shift         =    0.0000
ts:   Electrode self-energy imaginary Eta           =  0.1000E-02 eV
ts:   Electrode self-energy accuracy                =  0.1000E-12 eV
ts:   Electrode inter-layer distance (semi-inf)     =    1.4400 Ang
ts: >> Right
ts:   Electrode cell pivoting: E1, E2, E3           = A1, A2, A3
ts:   GF file                                       = siesta.TSGFRight
ts:   Reuse existing GF-file                        =    T
ts:   Electrode TSHS file                           = ../ELEC.TSHS
ts:   # atoms used in electrode                     =    8
ts:   Electrode Bloch unity [E1 x E2 x E3]          = 1 x 1 x 1
ts:   Position in geometry                          = 17 -- 24
ts:   Semi-infinite direction for electrode         = positive wrt. E1
ts:   Chemical shift                                =   -0.499999 eV
ts:   Electronic temperature                        =  299.997806 K
ts:   Gamma-only electrode                          =    F
ts:   Bulk H, S in electrode region                 =    T
ts:   Initial DM for electrodes                     = diagon
ts:   Cross-terms are updated
ts:   Manual delta-Ef shift                         =    0.000000 eV
ts:   Hamiltonian E-C bias fractional shift         =    0.0000
ts:   Electrode self-energy imaginary Eta           =  0.1000E-02 eV
ts:   Electrode self-energy accuracy                =  0.1000E-12 eV
ts:   Electrode inter-layer distance (semi-inf)     =    1.4400 Ang
ts:  ----------------- Contour ----------------- 
ts:            >> Residual contour << 
ts: Pole chemical potential                         =    0.5000 eV
ts:    Chemical potential temperature               =  299.9978 K
ts:    Number of poles                              =   16
ts:    Top energy point                             =    2.5989 eV
ts: Pole chemical potential                         =   -0.5000 eV
ts:    Chemical potential temperature               =  299.9978 K
ts:    Number of poles                              =   16
ts:    Top energy point                             =    2.5989 eV
ts:          >> Equilibrium contour << 
ts: Contour name                                    =    TS.Contour.C-Left
ts:   circle contour E_min                          =  -39.5000 eV
ts:   circle contour E_max                          =    0.2415 eV
ts:   circle contour points                         =   25
ts:   circle contour method                         =    Gauss-Legendre
ts: Contour name                                    =    TS.Contour.T-Left
ts:   tail contour E_min                            =    0.2415 eV
ts:   tail contour E_max                            =     Infinity
ts:   tail contour points                           =   10
ts:   tail contour method                           =    Gauss-Fermi (0kT)
ts: Contour name                                    =    TS.Contour.C-Right
ts:   circle contour E_min                          =  -40.5000 eV
ts:   circle contour E_max                          =   -0.7585 eV
ts:   circle contour points                         =   25
ts:   circle contour method                         =    Gauss-Legendre
ts: Contour name                                    =    TS.Contour.T-Right
ts:   tail contour E_min                            =   -0.7585 eV
ts:   tail contour E_max                            =     Infinity
ts:   tail contour points                           =   10
ts:   tail contour method                           =    Gauss-Fermi (0kT)
ts:         >> non-Equilibrium contour << 
ts: Device Green function imaginary Eta             =  0.000     eV
ts: Fermi-function cut-off                          =  5.000     kT
ts: Contour name                                    =    TS.Contour.nEq.neq
ts:   line contour E_min                            =   -0.6293 eV
ts:   line contour E_max                            =    0.6293 eV
ts:   line contour points                           =  126
ts:   line contour method                           =    Mid-rule
ts: **************************************************************

************************ Begin: TS CHECKS AND WARNINGS ************************
************************ End: TS CHECKS AND WARNINGS **************************


>>> TranSiesta block information for FDF-file START <<<

%block TS.ChemPots
  Left
  Right
%endblock TS.ChemPots

%block TS.ChemPot.Left
  mu  V/2
  contour.eq
   begin
    C-Left
    T-Left
   end
%endblock TS.ChemPot.Left
%block TS.ChemPot.Right
  mu  - V/2
  contour.eq
   begin
    C-Right
    T-Right
   end
%endblock TS.ChemPot.Right
%block TS.Contour.C-Left
  part circle
     from -40. eV + V/2 to -10 kT + V/2
      points 25
        method g-legendre
%endblock TS.Contour.C-Left
%block TS.Contour.T-Left
  part tail
     from prev to + inf
      points 10
        method g-fermi
%endblock TS.Contour.T-Left
%block TS.Contour.C-Right
  part circle
     from -40. eV - V/2 to -10 kT - V/2
      points 25
        method g-legendre
%endblock TS.Contour.C-Right
%block TS.Contour.T-Right
  part tail
     from prev to + inf
      points 10
        method g-fermi
%endblock TS.Contour.T-Right
%block TS.Contours.nEq
    neq
%endblock TS.Contours.nEq

%block TS.Contour.nEq.neq
  part line
     from - |V|/2 - 5 kT to |V|/2 + 5 kT
      delta 0.01 eV
        method mid-rule
%endblock TS.Contour.nEq.neq

>>> TranSiesta block information for FDF-file END <<<


transiesta: Regions of atoms:
   ## (8): Elec.Left
     [ 1 -- 8 ]
   ## (8): Elec.Right
     [ 17 -- 24 ]
   -- (8): Device
     [ 9 -- 16 ]

  <sparsity:../ELEC.TSHS
    nrows_g=72 nrows=72 sparsity=4.6250 nnzs=23976, refcount: 3>
  <sparsity:(TM [ 0,--,--] of: ../ELEC.TSHS)
    nrows_g=72 nrows=72 sparsity=3.3750 nnzs=17496, refcount: 3>
  <sparsity:(TM [-1,--,--] of: ../ELEC.TSHS)
    nrows_g=72 nrows=72 sparsity=.6250 nnzs=3240, refcount: 3>
 Left principal cell is perfect!

Calculating all surface Green functions for: Left
 Fermi level shift in electrode (chemical potential) :        0.50000  eV
 Atoms available    / used atoms   :      8 /      8
 Orbitals available / used orbitals:     72 /     72
 Total self-energy calculations: 1368
 Saving surface Green functions in: siesta.TSGFLeft
 Estimated file size:    109.160 MB
 Lopez Sancho, Lopez Sancho & Rubio recursive surface self-energy calculation...
 Lopez Sancho, Lopez Sancho & Rubio: Mean/std iterations:     4.9613 /     2.6120
 Lopez Sancho, Lopez Sancho & Rubio: Min/Max iterations :          3 /         15
Done creating 'siesta.TSGFLeft'.

  <sparsity:../ELEC.TSHS
    nrows_g=72 nrows=72 sparsity=4.6250 nnzs=23976, refcount: 3>
  <sparsity:(TM [ 0,--,--] of: ../ELEC.TSHS)
    nrows_g=72 nrows=72 sparsity=3.3750 nnzs=17496, refcount: 3>
  <sparsity:(TM [ 1,--,--] of: ../ELEC.TSHS)
    nrows_g=72 nrows=72 sparsity=.6250 nnzs=3240, refcount: 3>
 Right principal cell is perfect!

Calculating all surface Green functions for: Right
 Fermi level shift in electrode (chemical potential) :       -0.50000  eV
 Atoms available    / used atoms   :      8 /      8
 Orbitals available / used orbitals:     72 /     72
 Total self-energy calculations: 1368
 Saving surface Green functions in: siesta.TSGFRight
 Estimated file size:    109.160 MB
 Lopez Sancho, Lopez Sancho & Rubio recursive surface self-energy calculation...
 Lopez Sancho, Lopez Sancho & Rubio: Mean/std iterations:     4.9386 /     2.6105
 Lopez Sancho, Lopez Sancho & Rubio: Min/Max iterations :          3 /         15
Done creating 'siesta.TSGFRight'.


                     ====================================
                        Single-point calculation
                     ====================================

superc: Internal auxiliary supercell:     3 x     5 x     1  =      15
superc: Number of atoms, orbitals, and projectors:    360   3240   5760

outcell: Unit cell vectors (Ang):
       25.920000    0.000000    0.000000
        0.000000    2.494153    0.000000
        0.000000    0.000000   14.400000

outcell: Cell vector modules (Ang)   :   25.920000    2.494153   14.400000
outcell: Cell angles (23,13,12) (deg):     90.0000     90.0000     90.0000
outcell: Cell volume (Ang**3)        :    930.9377
<dSpData1D:S at geom step 0
  <sparsity:sparsity for geom step 0
    nrows_g=216 nrows=216 sparsity=1.5417 nnzs=71928, refcount: 7>
  <dData1D:(new from dSpData1D) n=71928, refcount: 1>
refcount: 1>
new_DM -- step:     1
Initializing Density Matrix...

Attempting to read DM, EDM from TSDE file... Succeeded...
DM from file:
<dSpData2D:IO-TSDE: siesta.TSDE
  <sparsity:IO-TSDE: siesta.TSDE
    nrows_g=216 nrows=216 sparsity=1.5417 nnzs=71928, refcount: 2>
  <dData2D:(new from dSpData2D) n=71928 m=1, refcount: 1>
refcount: 1>
DM to be used:
<dSpData2D:Re-structured SpM
  <sparsity:sparsity for geom step 0
    nrows_g=216 nrows=216 sparsity=1.5417 nnzs=71928, refcount: 8>
  <dData2D:(new in restruct) n=71928 m=1, refcount: 1>
refcount: 1>

transiesta: Starting immediately

                     ***************************
                     *  WELCOME TO TRANSIESTA  *
                     ***************************

No. of atoms with KB's overlaping orbs in proc 0. Max # of overlaps:      82     117
New grid distribution:   1
           1       1:  125    1:   12    1:   72

InitMesh: MESH =   250 x    24 x   144 =      864000
InitMesh: (bp) =   125 x    12 x    72 =      108000
InitMesh: Mesh cutoff (required, used) =   250.000   255.904 Ry
ExtMesh (bp) on 0 =   177 x    64 x   124 =     1404672
PhiOnMesh: Number of (b)points on node 0 =               108000
PhiOnMesh: nlist on node 0 =              1874428

ts-voltage: Ramp  0.500 eV to -0.500 eV placed in cell
ts-Vha: -0.39284E-02 eV

transiesta: created H and S sparsity pattern:
  <sparsity:(M of: (UC of: T T T sparsity for geom step 0))
    nrows_g=216 nrows=216 sparsity=.1806 nnzs=8424, refcount: 1>

transiesta: created local update sparsity pattern:
  <sparsity:(M of: T T T sparsity for geom step 0)
    nrows_g=216 nrows=216 sparsity=.6528 nnzs=30456, refcount: 1>

transiesta: update sparsity pattern same as H and S.

transiesta: Determining an optimal tri-matrix using: atom+Left
transiesta: Established a near-optimal partition for the tri-diagonal matrix.
BTD partitions (6): 
  [ [36] * 6 ]
transiesta: Matrix elements in % of full matrix:  44.44444 %

transiesta: mem of electrodes (static):                     0.47MB
transiesta: mem of global update arrays (static):           0.77MB
transiesta: mem of master node sparse arrays:               1.39MB
transiesta: mem of tri-diagonal matrices:                   0.63MB
transiesta: Total memory usage:                             3.27MB

transiesta: Charge distribution, target =     96.00000
Total charge                  [Q]  :     95.99958
Device                        [D]  :     31.28160
Left                          [E1] :     31.28224
Left                 / device [C1] :      0.72359
Right                         [E2] :     31.28224
Right                / device [C2] :      0.71217
Other                         [O]  :      0.71774
Excess charge                [dQ]  : -4.18747E-04

ts-err-D: ij(  174,   138), M = 0.27090E-1, ew = 0.89964E-4, em = 0.15780E-3. avg_em = 0.35038E-07
ts-err-E: ij(  174,   138), M = 0.11099   , ew = 0.32341E-4, em = 0.56727E-4. avg_em = -.86880E-08
ts-w-q:               qP1       qP2
ts-w-q:            17.824    14.882
ts-q:         D        E1        C1        E2        C2        dQ
ts-q:    31.274    31.282     0.748    31.282     0.684 -.122E-01
ts-Vha:  0.10280E+00 eV

siesta: Program's energy decomposition (eV):
siesta: Ebs     =     -1419.557361
siesta: Eions   =      6695.440803
siesta: Ena     =      1713.747240
siesta: Ekin    =      2508.259218
siesta: Enl     =      -143.983306
siesta: Eso     =         0.000000
siesta: Edftu   =         0.000000
siesta: DEna    =        58.210128
siesta: DUscf   =         3.489349
siesta: DUext   =         0.000000
siesta: Exc     =     -1336.116881
siesta: eta*DQ  =         0.000000
siesta: Emadel  =         0.000000
siesta: Emeta   =         0.000000
siesta: Emolmec =         0.000000
siesta: Ekinion =         0.000000
siesta: Eharris =     -3891.496602
siesta: Etot    =     -3891.835056
siesta: FreeEng =     -3891.835056
ts: E-dN      =         1.470798
ts: Band Stru =      -486.172065
ts: Kinetic   =       851.074011
ts: Ion-elec  =    -26263.213250
ts: Eharris   =     -5450.947357
ts: Etot      =     -5451.285811
ts: FreeEng   =     -5451.285811

        iscf     Eharris(eV)        E_KS(eV)     FreeEng(eV)     dDmax    Ef(eV) dHmax(eV)
ts-scf:    1    -5450.947357    -5451.285811    -5451.285811  0.014348 -5.448422  1.432620
timer: Routine,Calls,Time,% = TS             1     243.636  32.05
ts-err-D: ij(  174,   138), M = 0.26258E-1, ew = 0.12022E-3, em = 0.18554E-3. avg_em = 0.35143E-07
ts-err-E: ij(  174,   138), M = 0.11266   , ew = 0.45524E-4, em = 0.70257E-4. avg_em = -.96799E-08
ts-w-q:               qP1       qP2
ts-w-q:            17.712    15.013
ts-q:         D        E1        C1        E2        C2        dQ
ts-q:    31.284    31.282     0.733    31.282     0.708 0.724E-02
ts-Vha: -0.32062E-01 eV
ts-scf:    2    -5452.031768    -5451.747026    -5451.747026  0.014212 -5.448422  0.325906
ts-err-D: ij(  174,   138), M = 0.26498E-1, ew = 0.11183E-3, em = 0.17832E-3. avg_em = 0.35466E-07
ts-err-E: ij(  174,   138), M = 0.11234   , ew = 0.41815E-4, em = 0.66676E-4. avg_em = -.95868E-08
ts-w-q:               qP1       qP2
ts-w-q:            17.751    14.966
ts-q:         D        E1        C1        E2        C2        dQ
ts-q:    31.279    31.282     0.733    31.282     0.705 -.946E-03
ts-Vha:  0.59859E-02 eV
ts-scf:    3    -5451.483337    -5451.595391    -5451.595391  0.002606 -5.448422  0.044331
ts-err-D: ij(  138,   174), M = 0.26509E-1, ew = 0.11139E-3, em = 0.17762E-3. avg_em = 0.35378E-07
ts-err-E: ij(  138,   174), M = 0.11234   , ew = 0.41635E-4, em = 0.66389E-4. avg_em = -.95291E-08
ts-w-q:               qP1       qP2
ts-w-q:            17.745    14.972
ts-q:         D        E1        C1        E2        C2        dQ
ts-q:    31.279    31.282     0.732    31.282     0.705 -.628E-03
ts-Vha:  0.45472E-02 eV
ts-scf:    4    -5451.607775    -5451.604430    -5451.604430  0.000279 -5.448422  0.033274
ts-err-D: ij(  174,   138), M = 0.26540E-1, ew = 0.11001E-3, em = 0.17578E-3. avg_em = 0.35244E-07
ts-err-E: ij(  174,   138), M = 0.11235   , ew = 0.41046E-4, em = 0.65588E-4. avg_em = -.94198E-08
ts-w-q:               qP1       qP2
ts-w-q:            17.736    14.981
ts-q:         D        E1        C1        E2        C2        dQ
ts-q:    31.279    31.282     0.731    31.282     0.707 -.720E-03
ts-Vha:  0.40809E-02 eV
ts-scf:    5    -5451.607195    -5451.610126    -5451.610126  0.000564 -5.448422  0.006988
ts-err-D: ij(  138,   174), M = 0.26519E-1, ew = 0.10983E-3, em = 0.17550E-3. avg_em = 0.35231E-07
ts-err-E: ij(  138,   174), M = 0.11237   , ew = 0.40963E-4, em = 0.65454E-4. avg_em = -.94032E-08
ts-w-q:               qP1       qP2
ts-w-q:            17.736    14.982
ts-q:         D        E1        C1        E2        C2        dQ
ts-q:    31.280    31.282     0.730    31.282     0.707 -.649E-03
ts-Vha:  0.36963E-02 eV
ts-scf:    6    -5451.612253    -5451.611629    -5451.611629  0.000355 -5.448422  0.001883
ts-err-D: ij(  174,   138), M = 0.26518E-1, ew = 0.10969E-3, em = 0.17538E-3. avg_em = 0.35245E-07
ts-err-E: ij(  174,   138), M = 0.11236   , ew = 0.40901E-4, em = 0.65392E-4. avg_em = -.94051E-08
ts-w-q:               qP1       qP2
ts-w-q:            17.736    14.980
ts-q:         D        E1        C1        E2        C2        dQ
ts-q:    31.279    31.282     0.730    31.282     0.707 -.965E-03
ts-Vha:  0.48547E-02 eV
ts-scf:    7    -5451.602009    -5451.606296    -5451.606296  0.000084 -5.448422  0.004765
ts-err-D: ij(  138,   174), M = 0.26516E-1, ew = 0.10977E-3, em = 0.17543E-3. avg_em = 0.35235E-07
ts-err-E: ij(  138,   174), M = 0.11237   , ew = 0.40936E-4, em = 0.65421E-4. avg_em = -.94024E-08
ts-w-q:               qP1       qP2
ts-w-q:            17.736    14.981
ts-q:         D        E1        C1        E2        C2        dQ
ts-q:    31.279    31.282     0.730    31.282     0.707 -.818E-03
ts-Vha:  0.42934E-02 eV
ts-scf:    8    -5451.610864    -5451.608927    -5451.608927  0.000022 -5.448422  0.002240
ts-err-D: ij(  138,   174), M = 0.26515E-1, ew = 0.10984E-3, em = 0.17547E-3. avg_em = 0.35225E-07
ts-err-E: ij(  138,   174), M = 0.11237   , ew = 0.40966E-4, em = 0.65446E-4. avg_em = -.93997E-08
ts-w-q:               qP1       qP2
ts-w-q:            17.735    14.982
ts-q:         D        E1        C1        E2        C2        dQ
ts-q:    31.280    31.282     0.730    31.282     0.707 -.670E-03
ts-Vha:  0.37574E-02 eV
ts-scf:    9    -5451.613463    -5451.611420    -5451.611420  0.000040 -5.448422  0.000680

SCF Convergence by DM+H+dQ criterion
max |DM_out - DM_in|         :     0.0000397572
max |H_out - H_in|      (eV) :     0.0006798472
     Q(TS) - Q(dev)          :    -0.0006700300
SCF cycle converged after 9 iterations

Using DM_out to compute the final energy and forces
No. of atoms with KB's overlaping orbs in proc 0. Max # of overlaps:      82     117
ts-Vha:  0.37574E-02 eV

siesta: E_KS(eV) =            -3892.0668

siesta: E_KS - E_eggbox =     -3892.0668

siesta: Atomic forces (eV/Ang):
----------------------------------------
   Tot    0.178788   -0.000001    0.000000
----------------------------------------
   Max    2.803831
   Res    0.563614    sqrt( Sum f_i^2 / 3N )
----------------------------------------
   Max    2.803831    constrained

ts: Atomic forces (eV/Ang):
----------------------------------------
   Tot   -0.517926    0.000352   -0.000000
----------------------------------------
   Max    0.280856
   Res    0.055620    sqrt( Sum f_i^2 / 3N )
----------------------------------------
   Max    0.280856    constrained

Stress tensor Voigt[x,y,z,yz,xz,xy] (kbar):      -12.33      -15.44        0.16       -0.00        0.00       -0.04
(Free)E + p*V (eV/cell)    -3886.7215
Target enthalpy (eV/cell)    -3892.0668

transiesta: Charge distribution, target =     96.00000
Total charge                  [Q]  :     95.99933
Device                        [D]  :     31.27953
Left                          [E1] :     31.28224
Left                 / device [C1] :      0.73041
Right                         [E2] :     31.28224
Right                / device [C2] :      0.70717
Other                         [O]  :      0.71774
Excess charge                [dQ]  : -6.70030E-04


siesta: Program's energy decomposition (eV):
siesta: Ebs     =     -1407.583419
siesta: Eions   =      6695.440803
siesta: Ena     =      1713.747240
siesta: Ekin    =      2508.548677
siesta: Enl     =      -143.997809
siesta: Eso     =         0.000000
siesta: Edftu   =         0.000000
siesta: DEna    =        57.961771
siesta: DUscf   =         3.400641
siesta: DUext   =         0.000000
siesta: Exc     =     -1336.286521
siesta: eta*DQ  =         0.000000
siesta: Emadel  =         0.000000
siesta: Emeta   =         0.000000
siesta: Emolmec =         0.000000
siesta: Ekinion =         0.000000
siesta: Eharris =     -3892.068848
siesta: Etot    =     -3892.066805
siesta: FreeEng =     -3892.066805
ts: E-dN      =         1.376937
ts: Band Stru =      -480.549739
ts: Kinetic   =       851.363470
ts: Ion-elec  =    -26275.837509
ts: Eharris   =     -5451.613463
ts: Etot      =     -5451.611420
ts: FreeEng   =     -5451.611420

siesta: Final energy (eV):
siesta:  Band Struct. =   -1407.583419
siesta:       Kinetic =    2508.548677
siesta:       Hartree =   11963.576940
siesta:       Edftu   =       0.000000
siesta:       Eso     =       0.000000
siesta:    Ext. field =       0.000000
siesta:   Exch.-corr. =   -1336.286521
siesta:  Ion-electron =  -26372.101164
siesta:       Ion-ion =    9344.195264
siesta:       Ekinion =       0.000000
siesta:         Total =   -3892.066805
ts:         E-dN  =       1.376937
ts:     Band Stru =    -480.549739
ts:       Kinetic =     851.363470
ts:      Ion-elec =  -26275.837509
ts:         Total =   -5451.611420
siesta:         Fermi =      -5.448422

siesta: Atomic forces (eV/Ang):
siesta:      1    0.050331    0.000000   -0.000000
siesta:      2    0.004016   -0.000000   -0.000000
siesta:      3   -0.009496   -0.000000   -0.000000
siesta:      4   -0.026425    0.000000   -0.000000
siesta:      5   -0.018769    0.000000   -0.000000
siesta:      6    0.161710    0.000054   -0.000000
siesta:      7   -2.803831   -0.000258    0.000000
siesta:      8    2.195266   -0.000742    0.000000
siesta:      9   -0.253501   -0.004877   -0.000000
siesta:     10    0.022166    0.004926   -0.000000
siesta:     11    0.017915   -0.004974    0.000000
siesta:     12    0.027296    0.005046   -0.000000
siesta:     13   -0.017286   -0.005126   -0.000000
siesta:     14    0.020039    0.005201   -0.000000
siesta:     15   -0.053700   -0.005276   -0.000000
siesta:     16   -0.280856    0.005433   -0.000000
siesta:     17   -1.638553    0.000777    0.000000
siesta:     18    2.698291   -0.000115    0.000000
siesta:     19   -0.155318   -0.000069   -0.000000
siesta:     20    0.029635   -0.000000    0.000000
siesta:     21    0.013584   -0.000000    0.000000
siesta:     22    0.003198    0.000000   -0.000000
siesta:     23    0.056884    0.000000    0.000000
siesta:     24    0.136193   -0.000000    0.000000
siesta: ----------------------------------------
siesta:    Tot    0.178788   -0.000001    0.000000

ts: Atomic forces (eV/Ang):
ts:      1    0.000000    0.000000    0.000000
ts:      2    0.000000    0.000000    0.000000
ts:      3    0.000000    0.000000    0.000000
ts:      4    0.000000    0.000000    0.000000
ts:      5    0.000000    0.000000    0.000000
ts:      6    0.000000    0.000000    0.000000
ts:      7    0.000000    0.000000    0.000000
ts:      8    0.000000    0.000000    0.000000
ts:      9   -0.253501   -0.004877   -0.000000
ts:     10    0.022166    0.004926   -0.000000
ts:     11    0.017915   -0.004974    0.000000
ts:     12    0.027296    0.005046   -0.000000
ts:     13   -0.017286   -0.005126   -0.000000
ts:     14    0.020039    0.005201   -0.000000
ts:     15   -0.053700   -0.005276   -0.000000
ts:     16   -0.280856    0.005433   -0.000000
ts:     17    0.000000    0.000000    0.000000
ts:     18    0.000000    0.000000    0.000000
ts:     19    0.000000    0.000000    0.000000
ts:     20    0.000000    0.000000    0.000000
ts:     21    0.000000    0.000000    0.000000
ts:     22    0.000000    0.000000    0.000000
ts:     23    0.000000    0.000000    0.000000
ts:     24    0.000000    0.000000    0.000000
ts: ----------------------------------------
ts:    Tot   -0.517926    0.000352   -0.000000

siesta: Stress tensor (static) (eV/Ang**3):
siesta:    -0.007693   -0.000024   -0.000000
siesta:    -0.000024   -0.009634   -0.000000
siesta:     0.000000   -0.000000    0.000102

siesta: Cell volume =        930.937679 Ang**3

siesta: Pressure (static):
siesta:                Solid            Molecule  Units
siesta:           0.00006254          0.00001462  Ry/Bohr**3
siesta:           0.00574180          0.00134255  eV/Ang**3
siesta:           9.19948349          2.15102319  kBar
(Free)E+ p_basis*V_orbitals  =       -3886.499555
(Free)Eharris+ p_basis*V_orbitals  =       -3886.501599

siesta: Electric dipole (a.u.)  =   -0.000000   -0.000000   -0.000000
siesta: Electric dipole (Debye) =   -0.000000   -0.000000   -0.000000
ts-Vha:  0.37574E-02 eV

dhscf: Vacuum level (max, mean) =    0.688925    0.172082 eV

cite: Please see "siesta.bib" for an exhaustive BiBTeX file.
cite: Please clearly indicate Siesta version in published work: 4.1.5
cite: This calculation has made use of the following articles
cite: which are encouraged to be cited in a published work.
        Primary SIESTA paper
          DOI: www.doi.org/10.1088/0953-8984/14/11/302
        Primary TranSiesta paper
          DOI: www.doi.org/10.1103/PhysRevB.65.165401
        TranSiesta N-electrode
          DOI: www.doi.org/10.1016/j.cpc.2016.09.022


timer: Elapsed wall time (sec) =    2715.930
timer: CPU execution times (sec):

Routine            Calls   Time/call    Tot.time        %
siesta                 1    2715.930    2715.930   100.00
Setup                  1     514.291     514.291    18.94
bands                  1       0.000       0.000     0.00
KSV_init               1       0.000       0.000     0.00
TS_SE                  2     257.091     514.182    18.93
IterGeom               1    2201.345    2201.345    81.05
state_init             1       0.082       0.082     0.00
hsparse                1       0.015       0.015     0.00
overlap                1       0.050       0.050     0.00
Setup_H0               1       1.547       1.547     0.06
naefs                  2       0.000       0.001     0.00
MolMec                 2       0.000       0.000     0.00
kinefsm                2       0.047       0.093     0.00
nlefsm                 2       0.162       0.324     0.01
DHSCF_Init             1       1.268       1.268     0.05
DHSCF1                 1       0.015       0.015     0.00
INITMESH               1       0.000       0.000     0.00
DHSCF2                 1       1.254       1.254     0.05
REMESH                 1       0.176       0.176     0.01
REORD                 38       0.001       0.030     0.00
PHION                  1       0.941       0.941     0.03
COMM_BSC              50       0.001       0.030     0.00
POISON                13       0.022       0.280     0.01
fft                   26       0.009       0.225     0.01
IterSCF                9     244.125    2197.123    80.90
setup_H               10       0.375       3.753     0.14
DHSCF                 12       0.512       6.139     0.23
DHSCF3                12       0.337       4.043     0.15
rhoofd                12       0.063       0.761     0.03
ts_volt               12       0.000       0.004     0.00
XC                    12       0.193       2.321     0.09
GXC-CellXC            12       0.190       2.280     0.08
cellXC                12       0.190       2.280     0.08
vmat                  11       0.051       0.557     0.02
writeHSX              11       0.008       0.084     0.00
compute_dm             9     243.693    2193.236    80.75
TS_init                1       0.009       0.009     0.00
pivot                  1       0.000       0.000     0.00
TS-rgn2tri             1       0.000       0.000     0.00
TS                     9     243.692    2193.226    80.75
ts_expand          24624       0.017     420.048    15.47
TM_inv              5508       0.110     604.712    22.27
V_TM_Pinv           6804       0.095     649.070    23.90
dGFGGF             13608       0.003      39.541     1.46
MIXER                  8       0.000       0.003     0.00
PostSCF                1       2.592       2.592     0.10
DHSCF4                 1       2.096       2.096     0.08
dfscf                  1       1.970       1.970     0.07
overfsm                1       0.018       0.018     0.00
state_analysis         1       0.001       0.001     0.00
siesta_move            1       0.000       0.000     0.00
Analysis               1       0.291       0.291     0.01
siesta_analysis        1       0.291       0.291     0.01
optical                1       0.000       0.000     0.00
  
>> End of run:  27-MAR-2023  19:32:27
Job completed
